 Entering Gaussian System, Link 0=g09
 Input=Furan_nmr.com
 Output=Furan_nmr.log
 Initial command:
 /home/pablo/g09_x86_64_AVX_Enabled_CPUs/tar/g09/l1.exe "/home/pablo/scratch/Gau-16118.inp" -scrdir="/home/pablo/scratch/"
 Entering Link 1 = /home/pablo/g09_x86_64_AVX_Enabled_CPUs/tar/g09/l1.exe PID=     16120.
  
 Copyright (c) 1988,1990,1992,1993,1995,1998,2003,2009,2015,
            Gaussian, Inc.  All Rights Reserved.
  
 This is part of the Gaussian(R) 09 program.  It is based on
 the Gaussian(R) 03 system (copyright 2003, Gaussian, Inc.),
 the Gaussian(R) 98 system (copyright 1998, Gaussian, Inc.),
 the Gaussian(R) 94 system (copyright 1995, Gaussian, Inc.),
 the Gaussian 92(TM) system (copyright 1992, Gaussian, Inc.),
 the Gaussian 90(TM) system (copyright 1990, Gaussian, Inc.),
 the Gaussian 88(TM) system (copyright 1988, Gaussian, Inc.),
 the Gaussian 86(TM) system (copyright 1986, Carnegie Mellon
 University), and the Gaussian 82(TM) system (copyright 1983,
 Carnegie Mellon University). Gaussian is a federally registered
 trademark of Gaussian, Inc.
  
 This software contains proprietary and confidential information,
 including trade secrets, belonging to Gaussian, Inc.
  
 This software is provided under written license and may be
 used, copied, transmitted, or stored only in accord with that
 written license.
  
 The following legend is applicable only to US Government
 contracts under FAR:
  
                    RESTRICTED RIGHTS LEGEND
  
 Use, reproduction and disclosure by the US Government is
 subject to restrictions as set forth in subparagraphs (a)
 and (c) of the Commercial Computer Software - Restricted
 Rights clause in FAR 52.227-19.
  
 Gaussian, Inc.
 340 Quinnipiac St., Bldg. 40, Wallingford CT 06492
  
  
 ---------------------------------------------------------------
 Warning -- This program may not be used in any manner that
 competes with the business of Gaussian, Inc. or will provide
 assistance to any competitor of Gaussian, Inc.  The licensee
 of this program is prohibited from giving any competitor of
 Gaussian, Inc. access to this program.  By using this program,
 the user acknowledges that Gaussian, Inc. is engaged in the
 business of creating and licensing software in the field of
 computational chemistry and represents and warrants to the
 licensee that it is not a competitor of Gaussian, Inc. and that
 it will not use this program in any manner prohibited above.
 ---------------------------------------------------------------
  

 Cite this work as:
 Gaussian 09, Revision E.01,
 M. J. Frisch, G. W. Trucks, H. B. Schlegel, G. E. Scuseria, 
 M. A. Robb, J. R. Cheeseman, G. Scalmani, V. Barone, B. Mennucci, 
 G. A. Petersson, H. Nakatsuji, M. Caricato, X. Li, H. P. Hratchian, 
 A. F. Izmaylov, J. Bloino, G. Zheng, J. L. Sonnenberg, M. Hada, 
 M. Ehara, K. Toyota, R. Fukuda, J. Hasegawa, M. Ishida, T. Nakajima, 
 Y. Honda, O. Kitao, H. Nakai, T. Vreven, J. A. Montgomery, Jr., 
 J. E. Peralta, F. Ogliaro, M. Bearpark, J. J. Heyd, E. Brothers, 
 K. N. Kudin, V. N. Staroverov, T. Keith, R. Kobayashi, J. Normand, 
 K. Raghavachari, A. Rendell, J. C. Burant, S. S. Iyengar, J. Tomasi, 
 M. Cossi, N. Rega, J. M. Millam, M. Klene, J. E. Knox, J. B. Cross, 
 V. Bakken, C. Adamo, J. Jaramillo, R. Gomperts, R. E. Stratmann, 
 O. Yazyev, A. J. Austin, R. Cammi, C. Pomelli, J. W. Ochterski, 
 R. L. Martin, K. Morokuma, V. G. Zakrzewski, G. A. Voth, 
 P. Salvador, J. J. Dannenberg, S. Dapprich, A. D. Daniels, 
 O. Farkas, J. B. Foresman, J. V. Ortiz, J. Cioslowski, 
 and D. J. Fox, Gaussian, Inc., Wallingford CT, 2013.
 
 ******************************************
 Gaussian 09:  ES64L-G09RevE.01 30-Nov-2015
                21-May-2020 
 ******************************************
 %mem=4GB
 -------------------
 # NMR PBE1PBE/6-31G
 -------------------
 1/38=1/1;
 2/12=2,17=6,18=5,40=1/2;
 3/5=1,6=6,11=2,16=1,25=1,30=1,74=-13/1,2,8,3;
 4//1;
 5/5=2,38=5/2;
 8/6=1,10=90,11=11/1;
 10/13=100,45=16/2;
 6/7=2,8=2,9=2,10=2,28=1/1;
 99/9=1/99;
 -------------
 Furan_nmr.xyz
 -------------
 Symbolic Z-matrix:
 Charge =  0 Multiplicity = 1
 C                    -1.08845  -0.34685   0.00015 
 C                    -0.71732   0.95626  -0.00013 
 C                     0.71728   0.95628   0.00005 
 C                     1.08846  -0.34682   0.00013 
 O                     0.00002  -1.15544  -0.00019 
 H                    -2.04447  -0.84958   0.00023 
 H                    -1.37502   1.81469  -0.00023 
 H                     1.37495   1.81474   0.00009 
 H                     2.04452  -0.84949   0.00021 
 
                          Input orientation:                          
 ---------------------------------------------------------------------
 Center     Atomic      Atomic             Coordinates (Angstroms)
 Number     Number       Type             X           Y           Z
 ---------------------------------------------------------------------
      1          6           0       -1.088451   -0.346854    0.000150
      2          6           0       -0.717315    0.956255   -0.000127
      3          6           0        0.717282    0.956278    0.000050
      4          6           0        1.088460   -0.346822    0.000130
      5          8           0        0.000022   -1.155437   -0.000188
      6          1           0       -2.044474   -0.849581    0.000229
      7          1           0       -1.375017    1.814686   -0.000234
      8          1           0        1.374949    1.814735    0.000085
      9          1           0        2.044517   -0.849485    0.000210
 ---------------------------------------------------------------------
                    Distance matrix (angstroms):
                    1          2          3          4          5
     1  C    0.000000
     2  C    1.354930   0.000000
     3  C    2.226842   1.434597   0.000000
     4  C    2.176911   2.226844   1.354933   0.000000
     5  O    1.355942   2.230205   2.230202   1.355933   0.000000
     6  H    1.080146   2.241070   3.299761   3.173018   2.067247
     7  H    2.180453   1.081423   2.261544   3.277321   3.272975
     8  H    3.277317   2.261539   1.081422   2.180460   3.272972
     9  H    3.173031   3.299760   2.241056   1.080146   2.067261
                    6          7          8          9
     6  H    0.000000
     7  H    2.747088   0.000000
     8  H    4.334863   2.749966   0.000000
     9  H    4.088991   4.334861   2.747069   0.000000
 Stoichiometry    C4H4O
 Framework group  C1[X(C4H4O)]
 Deg. of freedom    21
 Full point group                 C1      NOp   1
 Largest Abelian subgroup         C1      NOp   1
 Largest concise Abelian subgroup C1      NOp   1
                         Standard orientation:                         
 ---------------------------------------------------------------------
 Center     Atomic      Atomic             Coordinates (Angstroms)
 Number     Number       Type             X           Y           Z
 ---------------------------------------------------------------------
      1          6           0       -1.088451   -0.346854    0.000150
      2          6           0       -0.717315    0.956255   -0.000127
      3          6           0        0.717282    0.956278    0.000050
      4          6           0        1.088460   -0.346822    0.000130
      5          8           0        0.000022   -1.155437   -0.000188
      6          1           0       -2.044474   -0.849581    0.000229
      7          1           0       -1.375017    1.814686   -0.000234
      8          1           0        1.374949    1.814735    0.000085
      9          1           0        2.044517   -0.849485    0.000210
 ---------------------------------------------------------------------
 Rotational constants (GHZ):      9.5321893      9.3197651      4.7123903
 Standard basis: 6-31G (6D, 7F)
 There are    53 symmetry adapted cartesian basis functions of A   symmetry.
 There are    53 symmetry adapted basis functions of A   symmetry.
    53 basis functions,   126 primitive gaussians,    53 cartesian basis functions
    18 alpha electrons       18 beta electrons
       nuclear repulsion energy       161.3062379370 Hartrees.
 NAtoms=    9 NActive=    9 NUniq=    9 SFac= 1.00D+00 NAtFMM=   60 NAOKFM=F Big=F
 Integral buffers will be    131072 words long.
 Raffenetti 2 integral format.
 Two-electron integral symmetry is turned on.
 One-electron integrals computed using PRISM.
 NBasis=    53 RedAO= T EigKep=  1.45D-03  NBF=    53
 NBsUse=    53 1.00D-06 EigRej= -1.00D+00 NBFU=    53
 ExpMin= 1.61D-01 ExpMax= 5.48D+03 ExpMxC= 8.25D+02 IAcc=1 IRadAn=         1 AccDes= 0.00D+00
 Harris functional with IExCor= 1009 and IRadAn=       1 diagonalized for initial guess.
 HarFok:  IExCor= 1009 AccDes= 0.00D+00 IRadAn=         1 IDoV= 1 UseB2=F ITyADJ=14
 ICtDFT=  3500011 ScaDFX=  1.000000  1.000000  1.000000  1.000000
 FoFCou: FMM=F IPFlag=           0 FMFlag=      100000 FMFlg1=           0
         NFxFlg=           0 DoJE=T BraDBF=F KetDBF=T FulRan=T
         wScrn=  0.000000 ICntrl=     500 IOpCl=  0 I1Cent=   200000004 NGrid=           0
         NMat0=    1 NMatS0=      1 NMatT0=    0 NMatD0=    1 NMtDS0=    0 NMtDT0=    0
 Petite list used in FoFCou.
 Keep R1 ints in memory in canonical form, NReq=1925595.
 Requested convergence on RMS density matrix=1.00D-08 within 128 cycles.
 Requested convergence on MAX density matrix=1.00D-06.
 Requested convergence on             energy=1.00D-06.
 No special actions if energy rises.
 Integral accuracy reduced to 1.0D-05 until final iterations.
 Initial convergence to 1.0D-05 achieved.  Increase integral accuracy.
 SCF Done:  E(RPBE1PBE) =  -229.684208250     A.U. after   13 cycles
            NFock= 13  Conv=0.51D-08     -V/T= 2.0040
 DoSCS=F DFT=T ScalE2(SS,OS)=  1.000000  1.000000
 Range of M.O.s used for correlation:     1    53
 NBasis=    53 NAE=    18 NBE=    18 NFC=     0 NFV=     0
 NROrb=     53 NOA=    18 NOB=    18 NVA=    35 NVB=    35
          Differentiating once with respect to magnetic field using GIAOs.
          Electric field/nuclear overlap derivatives assumed to be zero.
 Keep R3 ints in memory in canonical form, NReq=2427110.
 FoFJK:  IHMeth= 1 ICntrl=    6127 DoSepK=F KAlg= 0 I1Cent=   0 FoldK=F
 IRaf=         1 NMat=   1 IRICut=       1 DoRegI=T DoRafI=F ISym2E= 0.
          There are     3 degrees of freedom in the 1st order CPHF.  IDoFFX=0 NUNeed=     3.
      3 vectors produced by pass  0 Test12= 2.10D-14 3.33D-08 XBig12= 2.77D+00 1.04D+00.
 AX will form     3 AO Fock derivatives at one time.
      3 vectors produced by pass  1 Test12= 2.10D-14 3.33D-08 XBig12= 4.39D-03 4.53D-02.
      3 vectors produced by pass  2 Test12= 2.10D-14 3.33D-08 XBig12= 2.91D-05 3.32D-03.
      3 vectors produced by pass  3 Test12= 2.10D-14 3.33D-08 XBig12= 6.02D-08 8.15D-05.
      3 vectors produced by pass  4 Test12= 2.10D-14 3.33D-08 XBig12= 1.89D-10 5.69D-06.
      3 vectors produced by pass  5 Test12= 2.10D-14 3.33D-08 XBig12= 5.64D-13 2.36D-07.
 InvSVY:  IOpt=1 It=  1 EMax= 4.44D-16
 Solved reduced A of dimension    18 with     3 vectors.
 Calculating GIAO nuclear magnetic shielding tensors.
 SCF GIAO Magnetic shielding tensor (ppm):
      1  C    Isotropic =    61.7635   Anisotropy =    97.3446
   XX=    -6.3411   YX=    -7.3924   ZX=     0.0297
   XY=     9.5687   YY=    64.9718   ZY=     0.0046
   XZ=     0.0329   YZ=     0.0532   ZZ=   126.6599
   Eigenvalues:    -6.3577    64.9883   126.6599
      2  C    Isotropic =    92.1959   Anisotropy =   124.0038
   XX=    36.1801   YX=    30.6672   ZX=    -0.0152
   XY=    31.6123   YY=    65.5424   ZY=     0.0172
   XZ=    -0.0089   YZ=    -0.0089   ZZ=   174.8651
   Eigenvalues:    16.4342    85.2883   174.8651
      3  C    Isotropic =    92.1954   Anisotropy =   124.0022
   XX=    36.1821   YX=   -30.6682   ZX=    -0.0166
   XY=   -31.6147   YY=    65.5407   ZY=    -0.0020
   XZ=    -0.0026   YZ=    -0.0243   ZZ=   174.8636
   Eigenvalues:    16.4336    85.2891   174.8636
      4  C    Isotropic =    61.7640   Anisotropy =    97.3471
   XX=    -6.3429   YX=     7.3879   ZX=    -0.0182
   XY=    -9.5721   YY=    64.9727   ZY=    -0.0003
   XZ=    -0.0444   YZ=     0.0626   ZZ=   126.6620
   Eigenvalues:    -6.3596    64.9894   126.6620
      5  O    Isotropic =    45.5366   Anisotropy =   310.9735
   XX=   -89.6033   YX=    -0.0023   ZX=    -0.0034
   XY=    -0.0050   YY=   -26.6391   ZY=    -0.0357
   XZ=    -0.0484   YZ=     0.0401   ZZ=   252.8523
   Eigenvalues:   -89.6033   -26.6391   252.8523
      6  H    Isotropic =    25.3085   Anisotropy =     2.5881
   XX=    26.9606   YX=    -0.0920   ZX=     0.0005
   XY=     0.7183   YY=    25.6968   ZY=     0.0000
   XZ=     0.0020   YZ=     0.0027   ZZ=    23.2682
   Eigenvalues:    23.2682    25.6235    27.0339
      7  H    Isotropic =    26.3348   Anisotropy =     2.3370
   XX=    26.6110   YX=    -0.4266   ZX=     0.0002
   XY=    -0.5538   YY=    27.7053   ZY=     0.0000
   XZ=     0.0001   YZ=    -0.0001   ZZ=    24.6881
   Eigenvalues:    24.6881    26.4235    27.8928
      8  H    Isotropic =    26.3348   Anisotropy =     2.3369
   XX=    26.6110   YX=     0.4265   ZX=    -0.0006
   XY=     0.5537   YY=    27.7053   ZY=    -0.0001
   XZ=     0.0004   YZ=    -0.0007   ZZ=    24.6881
   Eigenvalues:    24.6881    26.4236    27.8927
      9  H    Isotropic =    25.3085   Anisotropy =     2.5880
   XX=    26.9604   YX=     0.0919   ZX=     0.0001
   XY=    -0.7185   YY=    25.6969   ZY=    -0.0004
   XZ=    -0.0021   YZ=     0.0030   ZZ=    23.2682
   Eigenvalues:    23.2682    25.6235    27.0338
 End of Minotr F.D. properties file   721 does not exist.
 End of Minotr F.D. properties file   722 does not exist.
 End of Minotr F.D. properties file   788 does not exist.

 **********************************************************************

            Population analysis using the SCF density.

 **********************************************************************

 Orbital symmetries:
       Occupied  (A) (A) (A) (A) (A) (A) (A) (A) (A) (A) (A) (A)
                 (A) (A) (A) (A) (A) (A)
       Virtual   (A) (A) (A) (A) (A) (A) (A) (A) (A) (A) (A) (A)
                 (A) (A) (A) (A) (A) (A) (A) (A) (A) (A) (A) (A)
                 (A) (A) (A) (A) (A) (A) (A) (A) (A) (A) (A)
 The electronic state is 1-A.
 Alpha  occ. eigenvalues --  -19.29286 -10.28221 -10.28217 -10.23513 -10.23477
 Alpha  occ. eigenvalues --   -1.16527  -0.83206  -0.77759  -0.62285  -0.58626
 Alpha  occ. eigenvalues --   -0.56001  -0.46940  -0.45853  -0.42862  -0.41354
 Alpha  occ. eigenvalues --   -0.38079  -0.29236  -0.24402
 Alpha virt. eigenvalues --    0.02301   0.08361   0.12816   0.15000   0.16740
 Alpha virt. eigenvalues --    0.17850   0.20879   0.21403   0.32524   0.39419
 Alpha virt. eigenvalues --    0.44632   0.55102   0.55256   0.61196   0.61429
 Alpha virt. eigenvalues --    0.63337   0.63933   0.64787   0.68080   0.69781
 Alpha virt. eigenvalues --    0.73585   0.85575   0.88088   0.88732   0.95031
 Alpha virt. eigenvalues --    0.97548   1.01291   1.04611   1.08768   1.13809
 Alpha virt. eigenvalues --    1.16832   1.22139   1.45281   1.63707   1.88164
          Condensed to atoms (all electrons):
               1          2          3          4          5          6
     1  C    4.952571   0.581381  -0.078556  -0.133688   0.254286   0.374017
     2  C    0.581381   4.985969   0.508638  -0.078555  -0.088301  -0.028673
     3  C   -0.078556   0.508638   4.985970   0.581382  -0.088296   0.002415
     4  C   -0.133688  -0.078555   0.581382   4.952568   0.254278   0.006213
     5  O    0.254286  -0.088301  -0.088296   0.254278   8.215550  -0.036732
     6  H    0.374017  -0.028673   0.002415   0.006213  -0.036732   0.476561
     7  H   -0.024870   0.355052  -0.020935   0.005046   0.003637   0.000623
     8  H    0.005046  -0.020936   0.355052  -0.024870   0.003637  -0.000100
     9  H    0.006212   0.002415  -0.028674   0.374017  -0.036731  -0.000090
               7          8          9
     1  C   -0.024870   0.005046   0.006212
     2  C    0.355052  -0.020936   0.002415
     3  C   -0.020935   0.355052  -0.028674
     4  C    0.005046  -0.024870   0.374017
     5  O    0.003637   0.003637  -0.036731
     6  H    0.000623  -0.000100  -0.000090
     7  H    0.494347  -0.001087  -0.000100
     8  H   -0.001087   0.494348   0.000623
     9  H   -0.000100   0.000623   0.476563
 Mulliken charges:
               1
     1  C    0.063600
     2  C   -0.216990
     3  C   -0.216995
     4  C    0.063609
     5  O   -0.481329
     6  H    0.205767
     7  H    0.188287
     8  H    0.188286
     9  H    0.205766
 Sum of Mulliken charges =   0.00000
 Mulliken charges with hydrogens summed into heavy atoms:
               1
     1  C    0.269367
     2  C   -0.028703
     3  C   -0.028709
     4  C    0.269375
     5  O   -0.481329
 Electronic spatial extent (au):  <R**2>=            289.2353
 Charge=              0.0000 electrons
 Dipole moment (field-independent basis, Debye):
    X=             -0.0000    Y=              0.9595    Z=              0.0004  Tot=              0.9595
 Quadrupole moment (field-independent basis, Debye-Ang):
   XX=            -23.4169   YY=            -28.3447   ZZ=            -31.5023
   XY=              0.0001   XZ=              0.0002   YZ=             -0.0010
 Traceless Quadrupole moment (field-independent basis, Debye-Ang):
   XX=              4.3378   YY=             -0.5901   ZZ=             -3.7477
   XY=              0.0001   XZ=              0.0002   YZ=             -0.0010
 Octapole moment (field-independent basis, Debye-Ang**2):
  XXX=              0.0003  YYY=              3.8603  ZZZ=             -0.0011  XYY=             -0.0003
  XXY=             -4.0393  XXZ=              0.0012  XZZ=              0.0001  YZZ=             -2.9757
  YYZ=             -0.0001  XYZ=              0.0007
 Hexadecapole moment (field-independent basis, Debye-Ang**3):
 XXXX=           -155.4631 YYYY=           -161.5372 ZZZZ=            -31.0496 XXXY=             -0.0002
 XXXZ=             -0.0017 YYYX=              0.0006 YYYZ=             -0.0019 ZZZX=             -0.0028
 ZZZY=              0.0005 XXYY=            -45.3120 XXZZ=            -39.0379 YYZZ=            -34.9430
 XXYZ=             -0.0013 YYXZ=              0.0003 ZZXY=             -0.0001
 N-N= 1.613062379370D+02 E-N=-8.585325408348D+02  KE= 2.287606608492D+02
 1\1\GINC-SUR\SP\RPBE1PBE\6-31G\C4H4O1\PABLO\21-May-2020\0\\# NMR PBE1P
 BE/6-31G\\Furan_nmr.xyz\\0,1\C,0,-1.088451,-0.346854,0.00015\C,0,-0.71
 7315,0.956255,-0.000127\C,0,0.717282,0.956278,0.00005\C,0,1.08846,-0.3
 46822,0.00013\O,0,0.000022,-1.155437,-0.000188\H,0,-2.044474,-0.849581
 ,0.000229\H,0,-1.375017,1.814686,-0.000234\H,0,1.374949,1.814735,0.000
 085\H,0,2.044517,-0.849485,0.00021\\Version=ES64L-G09RevE.01\State=1-A
 \HF=-229.6842082\RMSD=5.130e-09\Dipole=-0.0000072,0.3775096,0.0001669\
 Quadrupole=3.2250299,-0.4387058,-2.7863242,0.0000713,0.0001658,-0.0007
 312\PG=C01 [X(C4H4O1)]\\@


 SILVERMAN'S PARADOX - IF MURPHY'S LAW CAN GO WRONG, IT WILL.
 Job cpu time:       0 days  0 hours  0 minutes  3.6 seconds.
 File lengths (MBytes):  RWF=      5 Int=      0 D2E=      0 Chk=      1 Scr=      1
 Normal termination of Gaussian 09 at Thu May 21 10:38:34 2020.
